+ 0.01 0 2 cbr 210 ------- 0 0.0 3.0 0 0
- 0.01 0 2 cbr 210 ------- 0 0.0 3.0 0 0
+ 0.01 1 2 cbr 500 ------- 0 1.0 3.0 0 1
- 0.01 1 2 cbr 500 ------- 0 1.0 3.0 0 1
+ 0.01375 0 2 cbr 210 ------- 0 0.0 3.0 1 2
- 0.01375 0 2 cbr 210 ------- 0 0.0 3.0 1 2
+ 0.015 1 2 cbr 500 ------- 0 1.0 3.0 1 3
- 0.015 1 2 cbr 500 ------- 0 1.0 3.0 1 3
+ 0.0175 0 2 cbr 210 ------- 0 0.0 3.0 2 4
- 0.0175 0 2 cbr 210 ------- 0 0.0 3.0 2 4
+ 0.02 1 2 cbr 500 ------- 0 1.0 3.0 2 5
- 0.02 1 2 cbr 500 ------- 0 1.0 3.0 2 5
+ 0.02125 0 2 cbr 210 ------- 0 0.0 3.0 3 6
- 0.02125 0 2 cbr 210 ------- 0 0.0 3.0 3 6
+ 0.025 1 2 cbr 500 ------- 0 1.0 3.0 3 7
- 0.025 1 2 cbr 500 ------- 0 1.0 3.0 3 7
+ 0.025 0 2 cbr 210 ------- 0 0.0 3.0 4 8
- 0.025 0 2 cbr 210 ------- 0 0.0 3.0 4 8
+ 0.02875 0 2 cbr 210 ------- 0 0.0 3.0 5 9
- 0.02875 0 2 cbr 210 ------- 0 0.0 3.0 5 9
+ 0.03 1 2 cbr 500 ------- 0 1.0 3.0 4 10
- 0.03 1 2 cbr 500 ------- 0 1.0 3.0 4 10
+ 0.0325 0 2 cbr 210 ------- 0 0.0 3.0 6 11
- 0.0325 0 2 cbr 210 ------- 0 0.0 3.0 6 11
+ 0.035 1 2 cbr 500 ------- 0 1.0 3.0 5 12
- 0.035 1 2 cbr 500 ------- 0 1.0 3.0 5 12
+ 0.03625 0 2 cbr 210 ------- 0 0.0 3.0 7 13
- 0.03625 0 2 cbr 210 ------- 0 0.0 3.0 7 13
+ 0.04 1 2 cbr 500 ------- 0 1.0 3.0 6 14
- 0.04 1 2 cbr 500 ------- 0 1.0 3.0 6 14
+ 0.04 0 2 cbr 210 ------- 0 0.0 3.0 8 15
- 0.04 0 2 cbr 210 ------- 0 0.0 3.0 8 15
+ 0.04375 0 2 cbr 210 ------- 0 0.0 3.0 9 16
- 0.04375 0 2 cbr 210 ------- 0 0.0 3.0 9 16
+ 0.045 1 2 cbr 500 ------- 0 1.0 3.0 7 17
- 0.045 1 2 cbr 500 ------- 0 1.0 3.0 7 17
+ 0.0475 0 2 cbr 210 ------- 0 0.0 3.0 10 18
- 0.0475 0 2 cbr 210 ------- 0 0.0 3.0 10 18
+ 0.05 1 2 cbr 500 ------- 0 1.0 3.0 8 19
- 0.05 1 2 cbr 500 ------- 0 1.0 3.0 8 19
+ 0.05125 0 2 cbr 210 ------- 0 0.0 3.0 11 20
- 0.05125 0 2 cbr 210 ------- 0 0.0 3.0 11 20
+ 0.055 1 2 cbr 500 ------- 0 1.0 3.0 9 21
- 0.055 1 2 cbr 500 ------- 0 1.0 3.0 9 21
+ 0.055 0 2 cbr 210 ------- 0 0.0 3.0 12 22
- 0.055 0 2 cbr 210 ------- 0 0.0 3.0 12 22
+ 0.05875 0 2 cbr 210 ------- 0 0.0 3.0 13 23
- 0.05875 0 2 cbr 210 ------- 0 0.0 3.0 13 23
+ 0.06 1 2 cbr 500 ------- 0 1.0 3.0 10 24
- 0.06 1 2 cbr 500 ------- 0 1.0 3.0 10 24
+ 0.0625 0 2 cbr 210 ------- 0 0.0 3.0 14 25
- 0.0625 0 2 cbr 210 ------- 0 0.0 3.0 14 25
+ 0.065 1 2 cbr 500 ------- 0 1.0 3.0 11 26
- 0.065 1 2 cbr 500 ------- 0 1.0 3.0 11 26
+ 0.06625 0 2 cbr 210 ------- 0 0.0 3.0 15 27
- 0.06625 0 2 cbr 210 ------- 0 0.0 3.0 15 27
+ 0.07 1 2 cbr 500 ------- 0 1.0 3.0 12 28
- 0.07 1 2 cbr 500 ------- 0 1.0 3.0 12 28
+ 0.07 0 2 cbr 210 ------- 0 0.0 3.0 16 29
- 0.07 0 2 cbr 210 ------- 0 0.0 3.0 16 29
+ 0.07375 0 2 cbr 210 ------- 0 0.0 3.0 17 30
- 0.07375 0 2 cbr 210 ------- 0 0.0 3.0 17 30
+ 0.075 1 2 cbr 500 ------- 0 1.0 3.0 13 31
- 0.075 1 2 cbr 500 ------- 0 1.0 3.0 13 31
+ 0.0775 0 2 cbr 210 ------- 0 0.0 3.0 18 32
- 0.0775 0 2 cbr 210 ------- 0 0.0 3.0 18 32
+ 0.08 1 2 cbr 500 ------- 0 1.0 3.0 14 33
- 0.08 1 2 cbr 500 ------- 0 1.0 3.0 14 33
+ 0.08125 0 2 cbr 210 ------- 0 0.0 3.0 19 34
- 0.08125 0 2 cbr 210 ------- 0 0.0 3.0 19 34
+ 0.085 1 2 cbr 500 ------- 0 1.0 3.0 15 35
- 0.085 1 2 cbr 500 ------- 0 1.0 3.0 15 35
+ 0.085 0 2 cbr 210 ------- 0 0.0 3.0 20 36
- 0.085 0 2 cbr 210 ------- 0 0.0 3.0 20 36
+ 0.08875 0 2 cbr 210 ------- 0 0.0 3.0 21 37
- 0.08875 0 2 cbr 210 ------- 0 0.0 3.0 21 37
+ 0.09 1 2 cbr 500 ------- 0 1.0 3.0 16 38
- 0.09 1 2 cbr 500 ------- 0 1.0 3.0 16 38
+ 0.0925 0 2 cbr 210 ------- 0 0.0 3.0 22 39
- 0.0925 0 2 cbr 210 ------- 0 0.0 3.0 22 39
+ 0.095 1 2 cbr 500 ------- 0 1.0 3.0 17 40
- 0.095 1 2 cbr 500 ------- 0 1.0 3.0 17 40
+ 0.09625 0 2 cbr 210 ------- 0 0.0 3.0 23 41
- 0.09625 0 2 cbr 210 ------- 0 0.0 3.0 23 41
+ 0.1 1 2 cbr 500 ------- 0 1.0 3.0 18 42
- 0.1 1 2 cbr 500 ------- 0 1.0 3.0 18 42
+ 0.1 0 2 cbr 210 ------- 0 0.0 3.0 24 43
- 0.1 0 2 cbr 210 ------- 0 0.0 3.0 24 43
+ 0.10375 0 2 cbr 210 ------- 0 0.0 3.0 25 44
- 0.10375 0 2 cbr 210 ------- 0 0.0 3.0 25 44
+ 0.105 1 2 cbr 500 ------- 0 1.0 3.0 19 45
- 0.105 1 2 cbr 500 ------- 0 1.0 3.0 19 45
+ 0.1075 0 2 cbr 210 ------- 0 0.0 3.0 26 46
- 0.1075 0 2 cbr 210 ------- 0 0.0 3.0 26 46
+ 0.11 1 2 cbr 500 ------- 0 1.0 3.0 20 47
- 0.11 1 2 cbr 500 ------- 0 1.0 3.0 20 47
+ 0.11125 0 2 cbr 210 ------- 0 0.0 3.0 27 48
- 0.11125 0 2 cbr 210 ------- 0 0.0 3.0 27 48
+ 0.115 1 2 cbr 500 ------- 0 1.0 3.0 21 49
- 0.115 1 2 cbr 500 ------- 0 1.0 3.0 21 49
+ 0.115 0 2 cbr 210 ------- 0 0.0 3.0 28 50
- 0.115 0 2 cbr 210 ------- 0 0.0 3.0 28 50
+ 0.11875 0 2 cbr 210 ------- 0 0.0 3.0 29 51
- 0.11875 0 2 cbr 210 ------- 0 0.0 3.0 29 51
+ 0.12 1 2 cbr 500 ------- 0 1.0 3.0 22 52
- 0.12 1 2 cbr 500 ------- 0 1.0 3.0 22 52
+ 0.1225 0 2 cbr 210 ------- 0 0.0 3.0 30 53
- 0.1225 0 2 cbr 210 ------- 0 0.0 3.0 30 53
+ 0.125 1 2 cbr 500 ------- 0 1.0 3.0 23 54
- 0.125 1 2 cbr 500 ------- 0 1.0 3.0 23 54
+ 0.12625 0 2 cbr 210 ------- 0 0.0 3.0 31 55
- 0.12625 0 2 cbr 210 ------- 0 0.0 3.0 31 55
+ 0.13 1 2 cbr 500 ------- 0 1.0 3.0 24 56
- 0.13 1 2 cbr 500 ------- 0 1.0 3.0 24 56
+ 0.13 0 2 cbr 210 ------- 0 0.0 3.0 32 57
- 0.13 0 2 cbr 210 ------- 0 0.0 3.0 32 57
+ 0.13375 0 2 cbr 210 ------- 0 0.0 3.0 33 58
- 0.13375 0 2 cbr 210 ------- 0 0.0 3.0 33 58
+ 0.135 1 2 cbr 500 ------- 0 1.0 3.0 25 59
- 0.135 1 2 cbr 500 ------- 0 1.0 3.0 25 59
+ 0.1375 0 2 cbr 210 ------- 0 0.0 3.0 34 60
- 0.1375 0 2 cbr 210 ------- 0 0.0 3.0 34 60
+ 0.14 1 2 cbr 500 ------- 0 1.0 3.0 26 61
- 0.14 1 2 cbr 500 ------- 0 1.0 3.0 26 61
+ 0.14125 0 2 cbr 210 ------- 0 0.0 3.0 35 62
- 0.14125 0 2 cbr 210 ------- 0 0.0 3.0 35 62
+ 0.145 1 2 cbr 500 ------- 0 1.0 3.0 27 63
- 0.145 1 2 cbr 500 ------- 0 1.0 3.0 27 63
+ 0.145 0 2 cbr 210 ------- 0 0.0 3.0 36 64
- 0.145 0 2 cbr 210 ------- 0 0.0 3.0 36 64
+ 0.14875 0 2 cbr 210 ------- 0 0.0 3.0 37 65
- 0.14875 0 2 cbr 210 ------- 0 0.0 3.0 37 65
+ 0.15 1 2 cbr 500 ------- 0 1.0 3.0 28 66
- 0.15 1 2 cbr 500 ------- 0 1.0 3.0 28 66
+ 0.1525 0 2 cbr 210 ------- 0 0.0 3.0 38 67
- 0.1525 0 2 cbr 210 ------- 0 0.0 3.0 38 67
+ 0.155 1 2 cbr 500 ------- 0 1.0 3.0 29 68
- 0.155 1 2 cbr 500 ------- 0 1.0 3.0 29 68
+ 0.15625 0 2 cbr 210 ------- 0 0.0 3.0 39 69
- 0.15625 0 2 cbr 210 ------- 0 0.0 3.0 39 69
+ 0.16 1 2 cbr 500 ------- 0 1.0 3.0 30 70
- 0.16 1 2 cbr 500 ------- 0 1.0 3.0 30 70
+ 0.16 0 2 cbr 210 ------- 0 0.0 3.0 40 71
- 0.16 0 2 cbr 210 ------- 0 0.0 3.0 40 71
+ 0.16375 0 2 cbr 210 ------- 0 0.0 3.0 41 72
- 0.16375 0 2 cbr 210 ------- 0 0.0 3.0 41 72
+ 0.165 1 2 cbr 500 ------- 0 1.0 3.0 31 73
- 0.165 1 2 cbr 500 ------- 0 1.0 3.0 31 73
+ 0.1675 0 2 cbr 210 ------- 0 0.0 3.0 42 74
- 0.1675 0 2 cbr 210 ------- 0 0.0 3.0 42 74
+ 0.17 1 2 cbr 500 ------- 0 1.0 3.0 32 75
- 0.17 1 2 cbr 500 ------- 0 1.0 3.0 32 75
+ 0.17125 0 2 cbr 210 ------- 0 0.0 3.0 43 76
- 0.17125 0 2 cbr 210 ------- 0 0.0 3.0 43 76
+ 0.175 1 2 cbr 500 ------- 0 1.0 3.0 33 77
- 0.175 1 2 cbr 500 ------- 0 1.0 3.0 33 77
+ 0.175 0 2 cbr 210 ------- 0 0.0 3.0 44 78
- 0.175 0 2 cbr 210 ------- 0 0.0 3.0 44 78
+ 0.17875 0 2 cbr 210 ------- 0 0.0 3.0 45 79
- 0.17875 0 2 cbr 210 ------- 0 0.0 3.0 45 79
+ 0.18 1 2 cbr 500 ------- 0 1.0 3.0 34 80
- 0.18 1 2 cbr 500 ------- 0 1.0 3.0 34 80
+ 0.1825 0 2 cbr 210 ------- 0 0.0 3.0 46 81
- 0.1825 0 2 cbr 210 ------- 0 0.0 3.0 46 81
+ 0.185 1 2 cbr 500 ------- 0 1.0 3.0 35 82
- 0.185 1 2 cbr 500 ------- 0 1.0 3.0 35 82
+ 0.18625 0 2 cbr 210 ------- 0 0.0 3.0 47 83
- 0.18625 0 2 cbr 210 ------- 0 0.0 3.0 47 83
+ 0.19 1 2 cbr 500 ------- 0 1.0 3.0 36 84
- 0.19 1 2 cbr 500 ------- 0 1.0 3.0 36 84
+ 0.19 0 2 cbr 210 ------- 0 0.0 3.0 48 85
- 0.19 0 2 cbr 210 ------- 0 0.0 3.0 48 85
+ 0.19375 0 2 cbr 210 ------- 0 0.0 3.0 49 86
- 0.19375 0 2 cbr 210 ------- 0 0.0 3.0 49 86
+ 0.195 1 2 cbr 500 ------- 0 1.0 3.0 37 87
- 0.195 1 2 cbr 500 ------- 0 1.0 3.0 37 87
+ 0.1975 0 2 cbr 210 ------- 0 0.0 3.0 50 88
- 0.1975 0 2 cbr 210 ------- 0 0.0 3.0 50 88
+ 0.2 1 2 cbr 500 ------- 0 1.0 3.0 38 89
- 0.2 1 2 cbr 500 ------- 0 1.0 3.0 38 89
+ 0.20125 0 2 cbr 210 ------- 0 0.0 3.0 51 90
- 0.20125 0 2 cbr 210 ------- 0 0.0 3.0 51 90
+ 0.205 1 2 cbr 500 ------- 0 1.0 3.0 39 91
- 0.205 1 2 cbr 500 ------- 0 1.0 3.0 39 91
+ 0.205 0 2 cbr 210 ------- 0 0.0 3.0 52 92
- 0.205 0 2 cbr 210 ------- 0 0.0 3.0 52 92
+ 0.20875 0 2 cbr 210 ------- 0 0.0 3.0 53 93
- 0.20875 0 2 cbr 210 ------- 0 0.0 3.0 53 93
+ 0.21 1 2 cbr 500 ------- 0 1.0 3.0 40 94
- 0.21 1 2 cbr 500 ------- 0 1.0 3.0 40 94
+ 0.2125 0 2 cbr 210 ------- 0 0.0 3.0 54 95
- 0.2125 0 2 cbr 210 ------- 0 0.0 3.0 54 95
+ 0.215 1 2 cbr 500 ------- 0 1.0 3.0 41 96
- 0.215 1 2 cbr 500 ------- 0 1.0 3.0 41 96
+ 0.21625 0 2 cbr 210 ------- 0 0.0 3.0 55 97
- 0.21625 0 2 cbr 210 ------- 0 0.0 3.0 55 97
+ 0.22 1 2 cbr 500 ------- 0 1.0 3.0 42 98
- 0.22 1 2 cbr 500 ------- 0 1.0 3.0 42 98
+ 0.22 0 2 cbr 210 ------- 0 0.0 3.0 56 99
- 0.22 0 2 cbr 210 ------- 0 0.0 3.0 56 99
+ 0.22375 0 2 cbr 210 ------- 0 0.0 3.0 57 100
- 0.22375 0 2 cbr 210 ------- 0 0.0 3.0 57 100
+ 0.225 1 2 cbr 500 ------- 0 1.0 3.0 43 101
- 0.225 1 2 cbr 500 ------- 0 1.0 3.0 43 101
+ 0.2275 0 2 cbr 210 ------- 0 0.0 3.0 58 102
- 0.2275 0 2 cbr 210 ------- 0 0.0 3.0 58 102
+ 0.23 1 2 cbr 500 ------- 0 1.0 3.0 44 103
- 0.23 1 2 cbr 500 ------- 0 1.0 3.0 44 103
+ 0.23125 0 2 cbr 210 ------- 0 0.0 3.0 59 104
- 0.23125 0 2 cbr 210 ------- 0 0.0 3.0 59 104
+ 0.235 1 2 cbr 500 ------- 0 1.0 3.0 45 105
- 0.235 1 2 cbr 500 ------- 0 1.0 3.0 45 105
+ 0.235 0 2 cbr 210 ------- 0 0.0 3.0 60 106
- 0.235 0 2 cbr 210 ------- 0 0.0 3.0 60 106
+ 0.23875 0 2 cbr 210 ------- 0 0.0 3.0 61 107
- 0.23875 0 2 cbr 210 ------- 0 0.0 3.0 61 107
+ 0.24 1 2 cbr 500 ------- 0 1.0 3.0 46 108
- 0.24 1 2 cbr 500 ------- 0 1.0 3.0 46 108
+ 0.2425 0 2 cbr 210 ------- 0 0.0 3.0 62 109
- 0.2425 0 2 cbr 210 ------- 0 0.0 3.0 62 109
+ 0.245 1 2 cbr 500 ------- 0 1.0 3.0 47 110
- 0.245 1 2 cbr 500 ------- 0 1.0 3.0 47 110
+ 0.24625 0 2 cbr 210 ------- 0 0.0 3.0 63 111
- 0.24625 0 2 cbr 210 ------- 0 0.0 3.0 63 111
+ 0.25 1 2 cbr 500 ------- 0 1.0 3.0 48 112
- 0.25 1 2 cbr 500 ------- 0 1.0 3.0 48 112
+ 0.25 0 2 cbr 210 ------- 0 0.0 3.0 64 113
- 0.25 0 2 cbr 210 ------- 0 0.0 3.0 64 113
+ 0.25375 0 2 cbr 210 ------- 0 0.0 3.0 65 114
- 0.25375 0 2 cbr 210 ------- 0 0.0 3.0 65 114
+ 0.255 1 2 cbr 500 ------- 0 1.0 3.0 49 115
- 0.255 1 2 cbr 500 ------- 0 1.0 3.0 49 115
+ 0.2575 0 2 cbr 210 ------- 0 0.0 3.0 66 116
- 0.2575 0 2 cbr 210 ------- 0 0.0 3.0 66 116
+ 0.26 1 2 cbr 500 ------- 0 1.0 3.0 50 117
- 0.26 1 2 cbr 500 ------- 0 1.0 3.0 50 117
+ 0.26125 0 2 cbr 210 ------- 0 0.0 3.0 67 118
- 0.26125 0 2 cbr 210 ------- 0 0.0 3.0 67 118
+ 0.265 0 2 cbr 210 ------- 0 0.0 3.0 68 119
- 0.265 0 2 cbr 210 ------- 0 0.0 3.0 68 119
+ 0.265 1 2 cbr 500 ------- 0 1.0 3.0 51 120
- 0.265 1 2 cbr 500 ------- 0 1.0 3.0 51 120
+ 0.26875 0 2 cbr 210 ------- 0 0.0 3.0 69 121
- 0.26875 0 2 cbr 210 ------- 0 0.0 3.0 69 121
+ 0.27 1 2 cbr 500 ------- 0 1.0 3.0 52 122
- 0.27 1 2 cbr 500 ------- 0 1.0 3.0 52 122
+ 0.2725 0 2 cbr 210 ------- 0 0.0 3.0 70 123
- 0.2725 0 2 cbr 210 ------- 0 0.0 3.0 70 123
+ 0.275 1 2 cbr 500 ------- 0 1.0 3.0 53 124
- 0.275 1 2 cbr 500 ------- 0 1.0 3.0 53 124
+ 0.27625 0 2 cbr 210 ------- 0 0.0 3.0 71 125
- 0.27625 0 2 cbr 210 ------- 0 0.0 3.0 71 125
+ 0.28 0 2 cbr 210 ------- 0 0.0 3.0 72 126
- 0.28 0 2 cbr 210 ------- 0 0.0 3.0 72 126
+ 0.28 1 2 cbr 500 ------- 0 1.0 3.0 54 127
- 0.28 1 2 cbr 500 ------- 0 1.0 3.0 54 127
+ 0.28375 0 2 cbr 210 ------- 0 0.0 3.0 73 128
- 0.28375 0 2 cbr 210 ------- 0 0.0 3.0 73 128
+ 0.285 1 2 cbr 500 ------- 0 1.0 3.0 55 129
- 0.285 1 2 cbr 500 ------- 0 1.0 3.0 55 129
+ 0.2875 0 2 cbr 210 ------- 0 0.0 3.0 74 130
- 0.2875 0 2 cbr 210 ------- 0 0.0 3.0 74 130
+ 0.29 1 2 cbr 500 ------- 0 1.0 3.0 56 131
- 0.29 1 2 cbr 500 ------- 0 1.0 3.0 56 131
+ 0.29125 0 2 cbr 210 ------- 0 0.0 3.0 75 132
- 0.29125 0 2 cbr 210 ------- 0 0.0 3.0 75 132
+ 0.295 0 2 cbr 210 ------- 0 0.0 3.0 76 133
- 0.295 0 2 cbr 210 ------- 0 0.0 3.0 76 133
+ 0.295 1 2 cbr 500 ------- 0 1.0 3.0 57 134
- 0.295 1 2 cbr 500 ------- 0 1.0 3.0 57 134
+ 0.29875 0 2 cbr 210 ------- 0 0.0 3.0 77 135
- 0.29875 0 2 cbr 210 ------- 0 0.0 3.0 77 135
+ 0.3 1 2 cbr 500 ------- 0 1.0 3.0 58 136
- 0.3 1 2 cbr 500 ------- 0 1.0 3.0 58 136
+ 0.3025 0 2 cbr 210 ------- 0 0.0 3.0 78 137
- 0.3025 0 2 cbr 210 ------- 0 0.0 3.0 78 137
+ 0.305 1 2 cbr 500 ------- 0 1.0 3.0 59 138
- 0.305 1 2 cbr 500 ------- 0 1.0 3.0 59 138
+ 0.30625 0 2 cbr 210 ------- 0 0.0 3.0 79 139
- 0.30625 0 2 cbr 210 ------- 0 0.0 3.0 79 139
+ 0.31 0 2 cbr 210 ------- 0 0.0 3.0 80 140
- 0.31 0 2 cbr 210 ------- 0 0.0 3.0 80 140
+ 0.31 1 2 cbr 500 ------- 0 1.0 3.0 60 141
- 0.31 1 2 cbr 500 ------- 0 1.0 3.0 60 141
r 0.310168 0 2 cbr 210 ------- 0 0.0 3.0 0 0
+ 0.310168 2 3 cbr 210 ------- 0 0.0 3.0 0 0
- 0.310168 2 3 cbr 210 ------- 0 0.0 3.0 0 0
r 0.3104 1 2 cbr 500 ------- 0 1.0 3.0 0 1
+ 0.3104 2 3 cbr 500 ------- 0 1.0 3.0 0 1
- 0.311848 2 3 cbr 500 ------- 0 1.0 3.0 0 1
+ 0.31375 0 2 cbr 210 ------- 0 0.0 3.0 81 142
- 0.31375 0 2 cbr 210 ------- 0 0.0 3.0 81 142
r 0.313918 0 2 cbr 210 ------- 0 0.0 3.0 1 2
+ 0.313918 2 3 cbr 210 ------- 0 0.0 3.0 1 2
+ 0.315 1 2 cbr 500 ------- 0 1.0 3.0 61 143
- 0.315 1 2 cbr 500 ------- 0 1.0 3.0 61 143
r 0.3154 1 2 cbr 500 ------- 0 1.0 3.0 1 3
+ 0.3154 2 3 cbr 500 ------- 0 1.0 3.0 1 3
- 0.315848 2 3 cbr 210 ------- 0 0.0 3.0 1 2
+ 0.3175 0 2 cbr 210 ------- 0 0.0 3.0 82 144
- 0.3175 0 2 cbr 210 ------- 0 0.0 3.0 82 144
- 0.317528 2 3 cbr 500 ------- 0 1.0 3.0 1 3
r 0.317668 0 2 cbr 210 ------- 0 0.0 3.0 2 4
+ 0.317668 2 3 cbr 210 ------- 0 0.0 3.0 2 4
+ 0.32 1 2 cbr 500 ------- 0 1.0 3.0 62 145
- 0.32 1 2 cbr 500 ------- 0 1.0 3.0 62 145
r 0.3204 1 2 cbr 500 ------- 0 1.0 3.0 2 5
+ 0.3204 2 3 cbr 500 ------- 0 1.0 3.0 2 5
+ 0.32125 0 2 cbr 210 ------- 0 0.0 3.0 83 146
- 0.32125 0 2 cbr 210 ------- 0 0.0 3.0 83 146
r 0.321418 0 2 cbr 210 ------- 0 0.0 3.0 3 6
+ 0.321418 2 3 cbr 210 ------- 0 0.0 3.0 3 6
- 0.321528 2 3 cbr 210 ------- 0 0.0 3.0 2 4
- 0.323208 2 3 cbr 500 ------- 0 1.0 3.0 2 5
+ 0.325 0 2 cbr 210 ------- 0 0.0 3.0 84 147
- 0.325 0 2 cbr 210 ------- 0 0.0 3.0 84 147
+ 0.325 1 2 cbr 500 ------- 0 1.0 3.0 63 148
- 0.325 1 2 cbr 500 ------- 0 1.0 3.0 63 148
r 0.325168 0 2 cbr 210 ------- 0 0.0 3.0 4 8
+ 0.325168 2 3 cbr 210 ------- 0 0.0 3.0 4 8
r 0.3254 1 2 cbr 500 ------- 0 1.0 3.0 3 7
+ 0.3254 2 3 cbr 500 ------- 0 1.0 3.0 3 7
- 0.327208 2 3 cbr 210 ------- 0 0.0 3.0 3 6
+ 0.32875 0 2 cbr 210 ------- 0 0.0 3.0 85 149
- 0.32875 0 2 cbr 210 ------- 0 0.0 3.0 85 149
- 0.328888 2 3 cbr 210 ------- 0 0.0 3.0 4 8
r 0.328918 0 2 cbr 210 ------- 0 0.0 3.0 5 9
+ 0.328918 2 3 cbr 210 ------- 0 0.0 3.0 5 9
+ 0.33 1 2 cbr 500 ------- 0 1.0 3.0 64 150
- 0.33 1 2 cbr 500 ------- 0 1.0 3.0 64 150
r 0.3304 1 2 cbr 500 ------- 0 1.0 3.0 4 10
+ 0.3304 2 3 cbr 500 ------- 0 1.0 3.0 4 10
- 0.330568 2 3 cbr 500 ------- 0 1.0 3.0 3 7
+ 0.3325 0 2 cbr 210 ------- 0 0.0 3.0 86 151
- 0.3325 0 2 cbr 210 ------- 0 0.0 3.0 86 151
r 0.332668 0 2 cbr 210 ------- 0 0.0 3.0 6 11
+ 0.332668 2 3 cbr 210 ------- 0 0.0 3.0 6 11
- 0.334568 2 3 cbr 210 ------- 0 0.0 3.0 5 9
+ 0.335 1 2 cbr 500 ------- 0 1.0 3.0 65 152
- 0.335 1 2 cbr 500 ------- 0 1.0 3.0 65 152
r 0.3354 1 2 cbr 500 ------- 0 1.0 3.0 5 12
+ 0.3354 2 3 cbr 500 ------- 0 1.0 3.0 5 12
- 0.336248 2 3 cbr 500 ------- 0 1.0 3.0 4 10
+ 0.33625 0 2 cbr 210 ------- 0 0.0 3.0 87 153
- 0.33625 0 2 cbr 210 ------- 0 0.0 3.0 87 153
r 0.336418 0 2 cbr 210 ------- 0 0.0 3.0 7 13
+ 0.336418 2 3 cbr 210 ------- 0 0.0 3.0 7 13
+ 0.34 0 2 cbr 210 ------- 0 0.0 3.0 88 154
- 0.34 0 2 cbr 210 ------- 0 0.0 3.0 88 154
+ 0.34 1 2 cbr 500 ------- 0 1.0 3.0 66 155
- 0.34 1 2 cbr 500 ------- 0 1.0 3.0 66 155
r 0.340168 0 2 cbr 210 ------- 0 0.0 3.0 8 15
+ 0.340168 2 3 cbr 210 ------- 0 0.0 3.0 8 15
- 0.340248 2 3 cbr 210 ------- 0 0.0 3.0 6 11
r 0.3404 1 2 cbr 500 ------- 0 1.0 3.0 6 14
+ 0.3404 2 3 cbr 500 ------- 0 1.0 3.0 6 14
- 0.341928 2 3 cbr 500 ------- 0 1.0 3.0 5 12
+ 0.34375 0 2 cbr 210 ------- 0 0.0 3.0 89 156
- 0.34375 0 2 cbr 210 ------- 0 0.0 3.0 89 156
r 0.343918 0 2 cbr 210 ------- 0 0.0 3.0 9 16
+ 0.343918 2 3 cbr 210 ------- 0 0.0 3.0 9 16
+ 0.345 1 2 cbr 500 ------- 0 1.0 3.0 67 157
- 0.345 1 2 cbr 500 ------- 0 1.0 3.0 67 157
r 0.3454 1 2 cbr 500 ------- 0 1.0 3.0 7 17
+ 0.3454 2 3 cbr 500 ------- 0 1.0 3.0 7 17
- 0.345928 2 3 cbr 210 ------- 0 0.0 3.0 7 13
+ 0.3475 0 2 cbr 210 ------- 0 0.0 3.0 90 158
- 0.3475 0 2 cbr 210 ------- 0 0.0 3.0 90 158
- 0.347608 2 3 cbr 210 ------- 0 0.0 3.0 8 15
r 0.347668 0 2 cbr 210 ------- 0 0.0 3.0 10 18
+ 0.347668 2 3 cbr 210 ------- 0 0.0 3.0 10 18
- 0.349288 2 3 cbr 500 ------- 0 1.0 3.0 6 14
+ 0.35 1 2 cbr 500 ------- 0 1.0 3.0 68 159
- 0.35 1 2 cbr 500 ------- 0 1.0 3.0 68 159
r 0.3504 1 2 cbr 500 ------- 0 1.0 3.0 8 19
+ 0.3504 2 3 cbr 500 ------- 0 1.0 3.0 8 19
+ 0.35125 0 2 cbr 210 ------- 0 0.0 3.0 91 160
- 0.35125 0 2 cbr 210 ------- 0 0.0 3.0 91 160
r 0.351418 0 2 cbr 210 ------- 0 0.0 3.0 11 20
+ 0.351418 2 3 cbr 210 ------- 0 0.0 3.0 11 20
- 0.353288 2 3 cbr 210 ------- 0 0.0 3.0 9 16
- 0.354968 2 3 cbr 500 ------- 0 1.0 3.0 7 17
+ 0.355 0 2 cbr 210 ------- 0 0.0 3.0 92 161
- 0.355 0 2 cbr 210 ------- 0 0.0 3.0 92 161
+ 0.355 1 2 cbr 500 ------- 0 1.0 3.0 69 162
- 0.355 1 2 cbr 500 ------- 0 1.0 3.0 69 162
r 0.355168 0 2 cbr 210 ------- 0 0.0 3.0 12 22
+ 0.355168 2 3 cbr 210 ------- 0 0.0 3.0 12 22
r 0.3554 1 2 cbr 500 ------- 0 1.0 3.0 9 21
+ 0.3554 2 3 cbr 500 ------- 0 1.0 3.0 9 21
+ 0.35875 0 2 cbr 210 ------- 0 0.0 3.0 93 163
- 0.35875 0 2 cbr 210 ------- 0 0.0 3.0 93 163
r 0.358918 0 2 cbr 210 ------- 0 0.0 3.0 13 23
+ 0.358918 2 3 cbr 210 ------- 0 0.0 3.0 13 23
- 0.358968 2 3 cbr 210 ------- 0 0.0 3.0 10 18
+ 0.36 1 2 cbr 500 ------- 0 1.0 3.0 70 164
- 0.36 1 2 cbr 500 ------- 0 1.0 3.0 70 164
r 0.3604 1 2 cbr 500 ------- 0 1.0 3.0 10 24
+ 0.3604 2 3 cbr 500 ------- 0 1.0 3.0 10 24
- 0.360648 2 3 cbr 500 ------- 0 1.0 3.0 8 19
+ 0.3625 0 2 cbr 210 ------- 0 0.0 3.0 94 165
- 0.3625 0 2 cbr 210 ------- 0 0.0 3.0 94 165
r 0.362668 0 2 cbr 210 ------- 0 0.0 3.0 14 25
+ 0.362668 2 3 cbr 210 ------- 0 0.0 3.0 14 25
- 0.364648 2 3 cbr 210 ------- 0 0.0 3.0 11 20
+ 0.365 1 2 cbr 500 ------- 0 1.0 3.0 71 166
- 0.365 1 2 cbr 500 ------- 0 1.0 3.0 71 166
r 0.3654 1 2 cbr 500 ------- 0 1.0 3.0 11 26
+ 0.3654 2 3 cbr 500 ------- 0 1.0 3.0 11 26
+ 0.36625 0 2 cbr 210 ------- 0 0.0 3.0 95 167
- 0.36625 0 2 cbr 210 ------- 0 0.0 3.0 95 167
- 0.366328 2 3 cbr 210 ------- 0 0.0 3.0 12 22
r 0.366418 0 2 cbr 210 ------- 0 0.0 3.0 15 27
+ 0.366418 2 3 cbr 210 ------- 0 0.0 3.0 15 27
- 0.368008 2 3 cbr 500 ------- 0 1.0 3.0 9 21
+ 0.37 0 2 cbr 210 ------- 0 0.0 3.0 96 168
- 0.37 0 2 cbr 210 ------- 0 0.0 3.0 96 168
+ 0.37 1 2 cbr 500 ------- 0 1.0 3.0 72 169
- 0.37 1 2 cbr 500 ------- 0 1.0 3.0 72 169
r 0.370168 0 2 cbr 210 ------- 0 0.0 3.0 16 29
+ 0.370168 2 3 cbr 210 ------- 0 0.0 3.0 16 29
r 0.3704 1 2 cbr 500 ------- 0 1.0 3.0 12 28
+ 0.3704 2 3 cbr 500 ------- 0 1.0 3.0 12 28
- 0.372008 2 3 cbr 210 ------- 0 0.0 3.0 13 23
- 0.373688 2 3 cbr 500 ------- 0 1.0 3.0 10 24
+ 0.37375 0 2 cbr 210 ------- 0 0.0 3.0 97 170
- 0.37375 0 2 cbr 210 ------- 0 0.0 3.0 97 170
r 0.373918 0 2 cbr 210 ------- 0 0.0 3.0 17 30
+ 0.373918 2 3 cbr 210 ------- 0 0.0 3.0 17 30
+ 0.375 1 2 cbr 500 ------- 0 1.0 3.0 73 171
- 0.375 1 2 cbr 500 ------- 0 1.0 3.0 73 171
r 0.3754 1 2 cbr 500 ------- 0 1.0 3.0 13 31
+ 0.3754 2 3 cbr 500 ------- 0 1.0 3.0 13 31
+ 0.3775 0 2 cbr 210 ------- 0 0.0 3.0 98 172
- 0.3775 0 2 cbr 210 ------- 0 0.0 3.0 98 172
r 0.377668 0 2 cbr 210 ------- 0 0.0 3.0 18 32
+ 0.377668 2 3 cbr 210 ------- 0 0.0 3.0 18 32
- 0.377688 2 3 cbr 210 ------- 0 0.0 3.0 14 25
- 0.379368 2 3 cbr 500 ------- 0 1.0 3.0 11 26
+ 0.38 1 2 cbr 500 ------- 0 1.0 3.0 74 173
- 0.38 1 2 cbr 500 ------- 0 1.0 3.0 74 173
r 0.3804 1 2 cbr 500 ------- 0 1.0 3.0 14 33
+ 0.3804 2 3 cbr 500 ------- 0 1.0 3.0 14 33
+ 0.38125 0 2 cbr 210 ------- 0 0.0 3.0 99 174
- 0.38125 0 2 cbr 210 ------- 0 0.0 3.0 99 174
r 0.381418 0 2 cbr 210 ------- 0 0.0 3.0 19 34
+ 0.381418 2 3 cbr 210 ------- 0 0.0 3.0 19 34
- 0.383368 2 3 cbr 210 ------- 0 0.0 3.0 15 27
+ 0.385 0 2 cbr 210 ------- 0 0.0 3.0 100 175
- 0.385 0 2 cbr 210 ------- 0 0.0 3.0 100 175
+ 0.385 1 2 cbr 500 ------- 0 1.0 3.0 75 176
- 0.385 1 2 cbr 500 ------- 0 1.0 3.0 75 176
- 0.385048 2 3 cbr 210 ------- 0 0.0 3.0 16 29
r 0.385168 0 2 cbr 210 ------- 0 0.0 3.0 20 36
+ 0.385168 2 3 cbr 210 ------- 0 0.0 3.0 20 36
r 0.3854 1 2 cbr 500 ------- 0 1.0 3.0 15 35
+ 0.3854 2 3 cbr 500 ------- 0 1.0 3.0 15 35
- 0.386728 2 3 cbr 500 ------- 0 1.0 3.0 12 28
+ 0.38875 0 2 cbr 210 ------- 0 0.0 3.0 101 177
- 0.38875 0 2 cbr 210 ------- 0 0.0 3.0 101 177
r 0.388918 0 2 cbr 210 ------- 0 0.0 3.0 21 37
+ 0.388918 2 3 cbr 210 ------- 0 0.0 3.0 21 37
+ 0.39 1 2 cbr 500 ------- 0 1.0 3.0 76 178
- 0.39 1 2 cbr 500 ------- 0 1.0 3.0 76 178
r 0.3904 1 2 cbr 500 ------- 0 1.0 3.0 16 38
+ 0.3904 2 3 cbr 500 ------- 0 1.0 3.0 16 38
- 0.390728 2 3 cbr 210 ------- 0 0.0 3.0 17 30
- 0.392408 2 3 cbr 500 ------- 0 1.0 3.0 13 31
+ 0.3925 0 2 cbr 210 ------- 0 0.0 3.0 102 179
- 0.3925 0 2 cbr 210 ------- 0 0.0 3.0 102 179
r 0.392668 0 2 cbr 210 ------- 0 0.0 3.0 22 39
+ 0.392668 2 3 cbr 210 ------- 0 0.0 3.0 22 39
+ 0.395 1 2 cbr 500 ------- 0 1.0 3.0 77 180
- 0.395 1 2 cbr 500 ------- 0 1.0 3.0 77 180
r 0.3954 1 2 cbr 500 ------- 0 1.0 3.0 17 40
+ 0.3954 2 3 cbr 500 ------- 0 1.0 3.0 17 40
+ 0.39625 0 2 cbr 210 ------- 0 0.0 3.0 103 181
- 0.39625 0 2 cbr 210 ------- 0 0.0 3.0 103 181
- 0.396408 2 3 cbr 210 ------- 0 0.0 3.0 18 32
r 0.396418 0 2 cbr 210 ------- 0 0.0 3.0 23 41
+ 0.396418 2 3 cbr 210 ------- 0 0.0 3.0 23 41
- 0.398088 2 3 cbr 500 ------- 0 1.0 3.0 14 33
+ 0.4 0 2 cbr 210 ------- 0 0.0 3.0 104 182
- 0.4 0 2 cbr 210 ------- 0 0.0 3.0 104 182
+ 0.4 1 2 cbr 500 ------- 0 1.0 3.0 78 183
- 0.4 1 2 cbr 500 ------- 0 1.0 3.0 78 183
r 0.400168 0 2 cbr 210 ------- 0 0.0 3.0 24 43
+ 0.400168 2 3 cbr 210 ------- 0 0.0 3.0 24 43
r 0.4004 1 2 cbr 500 ------- 0 1.0 3.0 18 42
+ 0.4004 2 3 cbr 500 ------- 0 1.0 3.0 18 42
- 0.402088 2 3 cbr 210 ------- 0 0.0 3.0 19 34
+ 0.40375 0 2 cbr 210 ------- 0 0.0 3.0 105 184
- 0.40375 0 2 cbr 210 ------- 0 0.0 3.0 105 184
- 0.403768 2 3 cbr 210 ------- 0 0.0 3.0 20 36
r 0.403918 0 2 cbr 210 ------- 0 0.0 3.0 25 44
+ 0.403918 2 3 cbr 210 ------- 0 0.0 3.0 25 44
+ 0.405 1 2 cbr 500 ------- 0 1.0 3.0 79 185
- 0.405 1 2 cbr 500 ------- 0 1.0 3.0 79 185
r 0.4054 1 2 cbr 500 ------- 0 1.0 3.0 19 45
+ 0.4054 2 3 cbr 500 ------- 0 1.0 3.0 19 45
- 0.405448 2 3 cbr 500 ------- 0 1.0 3.0 15 35
+ 0.4075 0 2 cbr 210 ------- 0 0.0 3.0 106 186
- 0.4075 0 2 cbr 210 ------- 0 0.0 3.0 106 186
r 0.407668 0 2 cbr 210 ------- 0 0.0 3.0 26 46
+ 0.407668 2 3 cbr 210 ------- 0 0.0 3.0 26 46
- 0.409448 2 3 cbr 210 ------- 0 0.0 3.0 21 37
+ 0.41 1 2 cbr 500 ------- 0 1.0 3.0 80 187
- 0.41 1 2 cbr 500 ------- 0 1.0 3.0 80 187
r 0.4104 1 2 cbr 500 ------- 0 1.0 3.0 20 47
+ 0.4104 2 3 cbr 500 ------- 0 1.0 3.0 20 47
- 0.411128 2 3 cbr 500 ------- 0 1.0 3.0 16 38
+ 0.41125 0 2 cbr 210 ------- 0 0.0 3.0 107 188
- 0.41125 0 2 cbr 210 ------- 0 0.0 3.0 107 188
r 0.411418 0 2 cbr 210 ------- 0 0.0 3.0 27 48
+ 0.411418 2 3 cbr 210 ------- 0 0.0 3.0 27 48
+ 0.415 0 2 cbr 210 ------- 0 0.0 3.0 108 189
- 0.415 0 2 cbr 210 ------- 0 0.0 3.0 108 189
+ 0.415 1 2 cbr 500 ------- 0 1.0 3.0 81 190
- 0.415 1 2 cbr 500 ------- 0 1.0 3.0 81 190
- 0.415128 2 3 cbr 210 ------- 0 0.0 3.0 22 39
r 0.415168 0 2 cbr 210 ------- 0 0.0 3.0 28 50
+ 0.415168 2 3 cbr 210 ------- 0 0.0 3.0 28 50
r 0.4154 1 2 cbr 500 ------- 0 1.0 3.0 21 49
+ 0.4154 2 3 cbr 500 ------- 0 1.0 3.0 21 49
- 0.416808 2 3 cbr 500 ------- 0 1.0 3.0 17 40
+ 0.41875 0 2 cbr 210 ------- 0 0.0 3.0 109 191
- 0.41875 0 2 cbr 210 ------- 0 0.0 3.0 109 191
r 0.418918 0 2 cbr 210 ------- 0 0.0 3.0 29 51
+ 0.418918 2 3 cbr 210 ------- 0 0.0 3.0 29 51
+ 0.42 1 2 cbr 500 ------- 0 1.0 3.0 82 192
- 0.42 1 2 cbr 500 ------- 0 1.0 3.0 82 192
r 0.4204 1 2 cbr 500 ------- 0 1.0 3.0 22 52
+ 0.4204 2 3 cbr 500 ------- 0 1.0 3.0 22 52
- 0.420808 2 3 cbr 210 ------- 0 0.0 3.0 23 41
- 0.422488 2 3 cbr 210 ------- 0 0.0 3.0 24 43
+ 0.4225 0 2 cbr 210 ------- 0 0.0 3.0 110 193
- 0.4225 0 2 cbr 210 ------- 0 0.0 3.0 110 193
r 0.422668 0 2 cbr 210 ------- 0 0.0 3.0 30 53
+ 0.422668 2 3 cbr 210 ------- 0 0.0 3.0 30 53
- 0.424168 2 3 cbr 500 ------- 0 1.0 3.0 18 42
+ 0.425 1 2 cbr 500 ------- 0 1.0 3.0 83 194
- 0.425 1 2 cbr 500 ------- 0 1.0 3.0 83 194
r 0.4254 1 2 cbr 500 ------- 0 1.0 3.0 23 54
+ 0.4254 2 3 cbr 500 ------- 0 1.0 3.0 23 54
+ 0.42625 0 2 cbr 210 ------- 0 0.0 3.0 111 195
- 0.42625 0 2 cbr 210 ------- 0 0.0 3.0 111 195
r 0.426418 0 2 cbr 210 ------- 0 0.0 3.0 31 55
+ 0.426418 2 3 cbr 210 ------- 0 0.0 3.0 31 55
- 0.428168 2 3 cbr 210 ------- 0 0.0 3.0 25 44
- 0.429848 2 3 cbr 500 ------- 0 1.0 3.0 19 45
+ 0.43 0 2 cbr 210 ------- 0 0.0 3.0 112 196
- 0.43 0 2 cbr 210 ------- 0 0.0 3.0 112 196
+ 0.43 1 2 cbr 500 ------- 0 1.0 3.0 84 197
- 0.43 1 2 cbr 500 ------- 0 1.0 3.0 84 197
r 0.430168 0 2 cbr 210 ------- 0 0.0 3.0 32 57
+ 0.430168 2 3 cbr 210 ------- 0 0.0 3.0 32 57
r 0.4304 1 2 cbr 500 ------- 0 1.0 3.0 24 56
+ 0.4304 2 3 cbr 500 ------- 0 1.0 3.0 24 56
+ 0.43375 0 2 cbr 210 ------- 0 0.0 3.0 113 198
- 0.43375 0 2 cbr 210 ------- 0 0.0 3.0 113 198
- 0.433848 2 3 cbr 210 ------- 0 0.0 3.0 26 46
r 0.433918 0 2 cbr 210 ------- 0 0.0 3.0 33 58
+ 0.433918 2 3 cbr 210 ------- 0 0.0 3.0 33 58
+ 0.435 1 2 cbr 500 ------- 0 1.0 3.0 85 199
- 0.435 1 2 cbr 500 ------- 0 1.0 3.0 85 199
r 0.4354 1 2 cbr 500 ------- 0 1.0 3.0 25 59
+ 0.4354 2 3 cbr 500 ------- 0 1.0 3.0 25 59
- 0.435528 2 3 cbr 500 ------- 0 1.0 3.0 20 47
+ 0.4375 0 2 cbr 210 ------- 0 0.0 3.0 114 200
- 0.4375 0 2 cbr 210 ------- 0 0.0 3.0 114 200
r 0.437668 0 2 cbr 210 ------- 0 0.0 3.0 34 60
+ 0.437668 2 3 cbr 210 ------- 0 0.0 3.0 34 60
- 0.439528 2 3 cbr 210 ------- 0 0.0 3.0 27 48
+ 0.44 1 2 cbr 500 ------- 0 1.0 3.0 86 201
- 0.44 1 2 cbr 500 ------- 0 1.0 3.0 86 201
r 0.4404 1 2 cbr 500 ------- 0 1.0 3.0 26 61
+ 0.4404 2 3 cbr 500 ------- 0 1.0 3.0 26 61
- 0.441208 2 3 cbr 210 ------- 0 0.0 3.0 28 50
+ 0.44125 0 2 cbr 210 ------- 0 0.0 3.0 115 202
- 0.44125 0 2 cbr 210 ------- 0 0.0 3.0 115 202
r 0.441418 0 2 cbr 210 ------- 0 0.0 3.0 35 62
+ 0.441418 2 3 cbr 210 ------- 0 0.0 3.0 35 62
- 0.442888 2 3 cbr 500 ------- 0 1.0 3.0 21 49
+ 0.445 0 2 cbr 210 ------- 0 0.0 3.0 116 203
- 0.445 0 2 cbr 210 ------- 0 0.0 3.0 116 203
+ 0.445 1 2 cbr 500 ------- 0 1.0 3.0 87 204
- 0.445 1 2 cbr 500 ------- 0 1.0 3.0 87 204
r 0.445168 0 2 cbr 210 ------- 0 0.0 3.0 36 64
+ 0.445168 2 3 cbr 210 ------- 0 0.0 3.0 36 64
r 0.4454 1 2 cbr 500 ------- 0 1.0 3.0 27 63
+ 0.4454 2 3 cbr 500 ------- 0 1.0 3.0 27 63
- 0.446888 2 3 cbr 210 ------- 0 0.0 3.0 29 51
- 0.448568 2 3 cbr 500 ------- 0 1.0 3.0 22 52
+ 0.44875 0 2 cbr 210 ------- 0 0.0 3.0 117 205
- 0.44875 0 2 cbr 210 ------- 0 0.0 3.0 117 205
r 0.448918 0 2 cbr 210 ------- 0 0.0 3.0 37 65
+ 0.448918 2 3 cbr 210 ------- 0 0.0 3.0 37 65
+ 0.45 1 2 cbr 500 ------- 0 1.0 3.0 88 206
- 0.45 1 2 cbr 500 ------- 0 1.0 3.0 88 206
r 0.4504 1 2 cbr 500 ------- 0 1.0 3.0 28 66
+ 0.4504 2 3 cbr 500 ------- 0 1.0 3.0 28 66
+ 0.4525 0 2 cbr 210 ------- 0 0.0 3.0 118 207
- 0.4525 0 2 cbr 210 ------- 0 0.0 3.0 118 207
- 0.452568 2 3 cbr 210 ------- 0 0.0 3.0 30 53
r 0.452668 0 2 cbr 210 ------- 0 0.0 3.0 38 67
+ 0.452668 2 3 cbr 210 ------- 0 0.0 3.0 38 67
- 0.454248 2 3 cbr 500 ------- 0 1.0 3.0 23 54
+ 0.455 1 2 cbr 500 ------- 0 1.0 3.0 89 208
- 0.455 1 2 cbr 500 ------- 0 1.0 3.0 89 208
r 0.4554 1 2 cbr 500 ------- 0 1.0 3.0 29 68
+ 0.4554 2 3 cbr 500 ------- 0 1.0 3.0 29 68
+ 0.45625 0 2 cbr 210 ------- 0 0.0 3.0 119 209
- 0.45625 0 2 cbr 210 ------- 0 0.0 3.0 119 209
r 0.456418 0 2 cbr 210 ------- 0 0.0 3.0 39 69
+ 0.456418 2 3 cbr 210 ------- 0 0.0 3.0 39 69
- 0.458248 2 3 cbr 210 ------- 0 0.0 3.0 31 55
- 0.459928 2 3 cbr 210 ------- 0 0.0 3.0 32 57
+ 0.46 0 2 cbr 210 ------- 0 0.0 3.0 120 210
- 0.46 0 2 cbr 210 ------- 0 0.0 3.0 120 210
+ 0.46 1 2 cbr 500 ------- 0 1.0 3.0 90 211
- 0.46 1 2 cbr 500 ------- 0 1.0 3.0 90 211
r 0.460168 0 2 cbr 210 ------- 0 0.0 3.0 40 71
+ 0.460168 2 3 cbr 210 ------- 0 0.0 3.0 40 71
r 0.4604 1 2 cbr 500 ------- 0 1.0 3.0 30 70
+ 0.4604 2 3 cbr 500 ------- 0 1.0 3.0 30 70
- 0.461608 2 3 cbr 500 ------- 0 1.0 3.0 24 56
+ 0.46375 0 2 cbr 210 ------- 0 0.0 3.0 121 212
- 0.46375 0 2 cbr 210 ------- 0 0.0 3.0 121 212
r 0.463918 0 2 cbr 210 ------- 0 0.0 3.0 41 72
+ 0.463918 2 3 cbr 210 ------- 0 0.0 3.0 41 72
+ 0.465 1 2 cbr 500 ------- 0 1.0 3.0 91 213
- 0.465 1 2 cbr 500 ------- 0 1.0 3.0 91 213
r 0.4654 1 2 cbr 500 ------- 0 1.0 3.0 31 73
+ 0.4654 2 3 cbr 500 ------- 0 1.0 3.0 31 73
- 0.465608 2 3 cbr 210 ------- 0 0.0 3.0 33 58
- 0.467288 2 3 cbr 500 ------- 0 1.0 3.0 25 59
+ 0.4675 0 2 cbr 210 ------- 0 0.0 3.0 122 214
- 0.4675 0 2 cbr 210 ------- 0 0.0 3.0 122 214
r 0.467668 0 2 cbr 210 ------- 0 0.0 3.0 42 74
+ 0.467668 2 3 cbr 210 ------- 0 0.0 3.0 42 74
+ 0.47 1 2 cbr 500 ------- 0 1.0 3.0 92 215
- 0.47 1 2 cbr 500 ------- 0 1.0 3.0 92 215
r 0.4704 1 2 cbr 500 ------- 0 1.0 3.0 32 75
+ 0.4704 2 3 cbr 500 ------- 0 1.0 3.0 32 75
+ 0.47125 0 2 cbr 210 ------- 0 0.0 3.0 123 216
- 0.47125 0 2 cbr 210 ------- 0 0.0 3.0 123 216
- 0.471288 2 3 cbr 210 ------- 0 0.0 3.0 34 60
r 0.471418 0 2 cbr 210 ------- 0 0.0 3.0 43 76
+ 0.471418 2 3 cbr 210 ------- 0 0.0 3.0 43 76
- 0.472968 2 3 cbr 500 ------- 0 1.0 3.0 26 61
+ 0.475 0 2 cbr 210 ------- 0 0.0 3.0 124 217
- 0.475 0 2 cbr 210 ------- 0 0.0 3.0 124 217
+ 0.475 1 2 cbr 500 ------- 0 1.0 3.0 93 218
- 0.475 1 2 cbr 500 ------- 0 1.0 3.0 93 218
r 0.475168 0 2 cbr 210 ------- 0 0.0 3.0 44 78
+ 0.475168 2 3 cbr 210 ------- 0 0.0 3.0 44 78
r 0.4754 1 2 cbr 500 ------- 0 1.0 3.0 33 77
+ 0.4754 2 3 cbr 500 ------- 0 1.0 3.0 33 77
- 0.476968 2 3 cbr 210 ------- 0 0.0 3.0 35 62
- 0.478648 2 3 cbr 210 ------- 0 0.0 3.0 36 64
+ 0.47875 0 2 cbr 210 ------- 0 0.0 3.0 125 219
- 0.47875 0 2 cbr 210 ------- 0 0.0 3.0 125 219